1                                                                       
SP        UB3LYP                                                      CC-pVTZ             
Number of atoms                            I                1
Info1-9                                    I   N=           9
          10          10           0           0           0         110
           1          18        -502
Charge                                     I                0
Multiplicity                               I                2
Number of electrons                        I                1
Number of alpha electrons                  I                1
Number of beta electrons                   I                0
Number of basis functions                  I               15
Number of independent functions            I               15
Number of point charges in /Mol/           I                0
Number of translation vectors              I                0
Atomic numbers                             I   N=           1
           1
Nuclear charges                            R   N=           1
  1.00000000E+00
Current cartesian coordinates              R   N=           3
  0.00000000E+00  0.00000000E+00  0.00000000E+00
Force Field                                I                0
Int Atom Types                             I   N=           1
           0
MM charges                                 R   N=           1
  0.00000000E+00
Integer atomic weights                     I   N=           1
           1
Real atomic weights                        R   N=           1
  1.00782504E+00
Atom fragment info                         I   N=           1
           0
Atom residue num                           I   N=           1
           0
Nuclear spins                              I   N=           1
           1
Nuclear ZEff                               R   N=           1
 -1.00000000E+00
Nuclear ZNuc                               R   N=           1
  1.00000000E+00
Nuclear QMom                               R   N=           1
  0.00000000E+00
Nuclear GFac                               R   N=           1
  2.79284600E+00
MicOpt                                     I   N=           1
          -1
Number of contracted shells                I                6
Number of primitive shells                 I                8
Pure/Cartesian d shells                    I                1
Pure/Cartesian f shells                    I                1
Highest angular momentum                   I                2
Largest degree of contraction              I                3
Shell types                                I   N=           6
           0           0           0           1           1           2
Number of primitives per shell             I   N=           6
           3           1           1           1           1           1
Shell to atom map                          I   N=           6
           1           1           1           1           1           1
Primitive exponents                        R   N=           8
  3.38700000E+01  5.09500000E+00  1.15900000E+00  3.25800000E-01  1.02700000E-01
  1.40700000E+00  3.88000000E-01  1.05700000E+00
Contraction coefficients                   R   N=           8
  2.54948632E-02  1.90362766E-01  8.52162022E-01  1.00000000E+00  1.00000000E+00
  1.00000000E+00  1.00000000E+00  1.00000000E+00
Coordinates of each shell                  R   N=          18
  0.00000000E+00  0.00000000E+00  0.00000000E+00  0.00000000E+00  0.00000000E+00
  0.00000000E+00  0.00000000E+00  0.00000000E+00  0.00000000E+00  0.00000000E+00
  0.00000000E+00  0.00000000E+00  0.00000000E+00  0.00000000E+00  0.00000000E+00
  0.00000000E+00  0.00000000E+00  0.00000000E+00
Constraint Structure                       R   N=           3
  0.00000000E+00  0.00000000E+00  0.00000000E+00
Num ILSW                                   I              100
ILSW                                       I   N=         100
           1           1           0           0           2           0
           0           0           0           0         402          -1
           0           0           0           1           0           0
           0           0           1           0           0           0
           1           1           0           0           0           0
           0           0      100000           0          -1           0
           0           0           0           0           0           0
           0           0           0           1           0           0
           0           0           1           0           0           0
           0           0           4          41           0           0
           0           0           5           0           0           0
           0           0           0           0           0           0
           0           0           0           0           0           0
           0           0           0           0           0           0
           0           0           0           0           0           0
           0           0           0           0           0           0
           0           0           0           0
Num RLSW                                   I               41
RLSW                                       R   N=          41
  8.00000000E-01  7.20000000E-01  1.00000000E+00  8.10000000E-01  2.00000000E-01
  0.00000000E+00  0.00000000E+00  1.00000000E+00  0.00000000E+00  0.00000000E+00
  0.00000000E+00  0.00000000E+00  1.00000000E+00  0.00000000E+00  0.00000000E+00
  0.00000000E+00  0.00000000E+00  1.00000000E+00  0.00000000E+00  0.00000000E+00
  0.00000000E+00  0.00000000E+00  1.00000000E+00  0.00000000E+00  0.00000000E+00
  0.00000000E+00  0.00000000E+00  1.00000000E+00  0.00000000E+00  0.00000000E+00
  0.00000000E+00  0.00000000E+00  1.00000000E+00  0.00000000E+00  0.00000000E+00
  0.00000000E+00  0.00000000E+00  0.00000000E+00  1.00000000E+00  1.00000000E+00
  0.00000000E+00
MxBond                                     I                1
NBond                                      I   N=           1
           0
IBond                                      I   N=           1
           0
RBond                                      R   N=           1
  0.00000000E+00
Virial Ratio                               R      2.007909847274150E+00
SCF Energy                                 R     -5.021597484411249E-01
Total Energy                               R     -5.021597484411249E-01
S**2                                       R      7.500000000000000E-01
S**2 after annihilation                    R      7.500000000000000E-01
RMS Density                                R      5.364590970726161E-11
External E-field                           R   N=          35
  0.00000000E+00  0.00000000E+00  0.00000000E+00  0.00000000E+00  0.00000000E+00
  0.00000000E+00  0.00000000E+00  0.00000000E+00  0.00000000E+00  0.00000000E+00
  0.00000000E+00  0.00000000E+00  0.00000000E+00  0.00000000E+00  0.00000000E+00
  0.00000000E+00  0.00000000E+00  0.00000000E+00  0.00000000E+00  0.00000000E+00
  0.00000000E+00  0.00000000E+00  0.00000000E+00  0.00000000E+00  0.00000000E+00
  0.00000000E+00  0.00000000E+00  0.00000000E+00  0.00000000E+00  0.00000000E+00
  0.00000000E+00  0.00000000E+00  0.00000000E+00  0.00000000E+00  0.00000000E+00
IOpCl                                      I                1
IROHF                                      I                0
Alpha Orbital Energies                     R   N=          15
 -3.21728757E-01  2.25928661E-01  5.72415245E-01  5.72415245E-01  5.72415245E-01
  1.49439104E+00  3.13944451E+00  3.13944451E+00  3.13944451E+00  3.13944451E+00
  3.13944451E+00  3.50958972E+00  3.50958972E+00  3.50958972E+00  4.30797086E+00
Beta Orbital Energies                      R   N=          15
  2.80374274E-02  4.25881736E-01  8.04534984E-01  8.04534984E-01  8.04534984E-01
  1.77640271E+00  3.44945253E+00  3.44945253E+00  3.44945253E+00  3.44945253E+00
  3.44945253E+00  3.89439939E+00  3.89439939E+00  3.89439939E+00  4.70682245E+00
Alpha MO coefficients                      R   N=         225
  2.50757619E-01  4.61162035E-01  4.16927881E-01 -3.10652534E-17  8.98551607E-18
 -2.73354108E-17  2.05362103E-17  2.13160114E-17  3.79797473E-17  1.53438625E-03
  1.53438625E-03  1.53438625E-03 -1.46874695E-18  4.34651264E-18  1.83609677E-18
  2.61202238E-02  1.73023336E+00 -1.67294922E+00  1.57847589E-16 -9.57114246E-17
  1.74970916E-17 -1.35138892E-16  6.51916893E-17 -7.27079907E-19 -1.22169533E-01
 -1.22169533E-01 -1.22169533E-01 -3.91726375E-18 -7.96370616E-19 -6.40657904E-19
  5.77178250E-17 -2.12813902E-16  1.14822681E-16  2.57991334E-02  4.18815810E-02
 -5.91136016E-02 -3.50723073E-01 -5.69353882E-01  8.03612418E-01 -2.14938160E-17
  1.12765441E-16  9.72109076E-18  1.56138328E-16  5.12179303E-17  4.19864156E-17
 -1.65493850E-16  6.01127401E-16 -3.26686946E-16 -7.20662536E-02  2.12564033E-02
 -1.63920839E-02  9.79695616E-01 -2.88967500E-01  2.22840121E-01 -1.86315659E-16
 -1.15875692E-16  1.87002493E-17  1.32305981E-16  2.69239968E-17 -1.58716165E-16
  1.41133893E-17  2.27886949E-18  6.73769394E-17 -7.41213936E-03 -6.08948150E-02
 -4.63784615E-02  1.00763396E-01  8.27826900E-01  6.30486160E-01 -1.75498018E-16
 -7.91921721E-18  1.82562909E-16  6.22332957E-17 -4.96790977E-17 -5.42942503E-17
 -1.55175901E+00  3.64007457E+00 -1.22248858E+00 -5.51149274E-16 -1.05815693E-16
  3.65555042E-16  1.11205621E-17  7.41721389E-17 -1.98449815E-16 -6.96109760E-01
 -6.96109760E-01 -6.96109760E-01  3.52047249E-17 -2.40673286E-17 -2.65604939E-17
 -6.59348799E-17  1.61641384E-17 -2.33799874E-17 -2.90390688E-15 -6.93935728E-15
 -2.90310902E-15  2.17736123E-15  4.04057237E-15  1.77275802E-15  3.54208019E-02
 -1.91666953E-04 -3.52291349E-02 -4.30866729E-02 -2.50912914E-01  9.66189633E-01
 -4.88476504E-16 -3.50412870E-16 -1.44589791E-16  4.90611599E-15 -3.39417399E-15
  5.09920919E-15 -2.45521525E-15  2.23403296E-15 -2.55843522E-15  6.74200820E-01
 -3.33071124E-01 -3.41129695E-01  4.48289782E-01 -5.66879626E-01 -1.52037395E-01
 -5.52972817E-16  4.81368088E-16 -3.80101138E-16  1.43621394E-15 -3.78570130E-16
  2.03070679E-15 -4.01849162E-16  7.82935158E-16 -6.75480819E-17  7.36869064E-01
 -3.31922840E-01 -4.04946224E-01 -4.08106242E-01  5.29472384E-01  9.14045970E-02
 -4.90109159E-18 -9.03095770E-16  2.91129066E-16  8.92466136E-15 -8.31881771E-16
 -1.02133839E-15 -4.36254162E-15  1.04495913E-15  2.16140912E-16 -2.99311021E-02
  7.64490528E-01 -7.34559426E-01  4.10288576E-01  2.76372050E-01  7.30455277E-02
  3.64430862E-17  6.30101093E-16 -1.95800915E-16 -3.87130493E-15 -5.35075132E-15
 -2.59138803E-16  2.36423762E-15  3.07964762E-15 -8.00267580E-16  1.80757507E-02
 -4.40959239E-01  4.22883489E-01  6.79920870E-01  5.08888676E-01  1.72254969E-01
 -3.92706388E-16  5.40622888E-15 -1.22560770E-15  1.01487800E+00 -5.29815434E-01
  5.39870221E-01 -5.75447753E-01  3.00411577E-01 -3.06112759E-01 -7.79154512E-15
 -4.36970353E-15  5.90534231E-15 -4.27200069E-15  1.33967036E-15  8.92998801E-16
  1.62878516E-15 -5.92026010E-15  1.12825596E-15 -6.63211466E-01 -1.88827203E-01
  1.06143132E+00  3.76048695E-01  1.07067243E-01 -6.01844032E-01 -3.04531529E-16
  7.52511977E-15 -1.48525592E-15  6.47462055E-17  9.75418519E-16  1.36096817E-16
  2.52077846E-16 -1.09932434E-16  2.12725940E-16  3.63751015E-01  1.13392306E+00
  4.29005018E-01 -2.06251100E-01 -6.42947699E-01 -2.43250887E-01 -6.95164514E-16
 -3.60759960E-15  2.91152915E-15  3.13074675E-15  3.10665059E-16  7.59421300E-15
  3.64192381E-01  2.80564334E+00 -6.47377415E-01 -2.61177173E-15  6.30590446E-18
 -1.67133901E-18  1.44768263E-15 -7.07172470E-18 -6.75755555E-19 -1.27662587E+00
 -1.27662587E+00 -1.27662587E+00  6.26039753E-17 -1.54522035E-16 -2.08570169E-17
Beta MO coefficients                       R   N=         225
  1.70391474E-01 -9.79541485E-02  9.59955411E-01  6.92067722E-18 -7.05986757E-17
  1.30570911E-16 -2.08723620E-18  2.55883311E-17 -7.81971248E-17  3.14123395E-02
  3.14123395E-02  3.14123395E-02 -6.28376233E-19 -5.96742164E-19 -1.24238696E-19
 -5.55070265E-02  2.12783944E+00 -1.52583705E+00 -1.13865604E-18  3.36273906E-17
  7.92930216E-17 -7.31960036E-17 -4.83238113E-17 -7.25287661E-17 -1.73167966E-01
 -1.73167966E-01 -1.73167966E-01 -2.14337344E-18 -3.68332684E-18 -5.50540508E-18
  8.55712408E-17 -2.34972062E-16  1.22606888E-16  3.81602877E-02  4.23581816E-02
 -9.47826070E-02 -3.67155013E-01 -4.07544587E-01  9.11940432E-01 -5.66481270E-17
  2.25759291E-16 -3.71031654E-17  1.33536309E-16  4.61529880E-17  4.71700663E-17
 -2.05714411E-16  5.90954655E-16 -3.46314992E-16 -8.12891992E-02  7.50040359E-02
  7.91446292E-04  7.82115093E-01 -7.21643085E-01 -7.61481349E-03 -2.00903339E-16
 -1.70973996E-16  5.58973634E-17  2.83312227E-16  6.84459139E-17 -1.69890436E-16
 -1.25026815E-16  5.96864194E-16 -2.26057941E-16 -6.45757248E-02 -6.93854793E-02
 -5.70069883E-02  6.21308236E-01  6.67584761E-01  5.48486471E-01 -3.47934712E-16
 -1.01479418E-16  1.86663376E-16  2.15702746E-16  5.67162702E-18  1.61064297E-16
 -1.54114654E+00  3.57330814E+00 -1.12933322E+00  2.29431303E-16  1.87357021E-16
 -3.37571668E-16 -4.71404429E-16 -8.90713997E-17  1.82403663E-16 -7.45324183E-01
 -7.45324183E-01 -7.45324183E-01  1.09859731E-17  1.46331609E-18 -4.81702530E-18
 -1.33979987E-17  1.60719165E-16 -4.71705167E-17  6.38009521E-16 -9.77471371E-15
 -2.22043431E-15 -4.62512365E-16  4.82395246E-15  2.39608565E-16  3.97706656E-02
  8.82156855E-02 -1.27986351E-01  6.27648864E-01 -5.42670304E-01  5.42589193E-01
  1.45146378E-17 -5.55118457E-16  1.01094738E-16 -1.07706998E-14  1.89003661E-15
 -1.23861853E-15  4.72122851E-15 -1.42820877E-15  5.86618189E-16 -4.67547425E-02
 -8.14575150E-01  8.61329892E-01  9.81646047E-02  9.48083026E-02  2.07291712E-01
  9.09461028E-17 -3.93431124E-17  4.36171685E-17 -2.08312936E-15 -3.27111701E-15
  3.23210109E-15  8.40226236E-16  2.16375497E-15 -2.81638197E-15 -8.03601828E-02
  8.95055778E-02 -9.14539500E-03  7.61776466E-01  5.31998413E-01 -3.56332066E-01
  2.51161510E-17  1.69745411E-16 -2.91029268E-17  3.62001069E-15  1.12696981E-15
  7.50252859E-16 -1.90698497E-15 -5.57087639E-16 -6.24421936E-16 -2.13521725E-02
  1.90761517E-01 -1.69409344E-01 -1.20985677E-01  6.37681635E-01  7.31455854E-01
 -6.86450178E-16  1.67718959E-15 -7.51383518E-16  2.30264442E-15 -1.97085250E-15
  3.95511630E-15 -5.78263860E-16  1.39105308E-15 -1.25783431E-15  9.94644969E-01
 -5.33183002E-01 -4.61461967E-01  3.84668279E-02  8.28260108E-02 -2.50380809E-02
  6.25425770E-16  2.99599107E-15  4.88169807E-16  1.04747374E+00 -2.09077003E-01
  6.74468006E-01 -5.71791423E-01  1.14130247E-01 -3.68176314E-01 -6.18102444E-15
 -7.70625358E-15  8.26990933E-15  3.63452580E-17 -1.08352396E-15 -3.37526048E-16
 -1.21058448E-15 -7.21613875E-16 -2.59446516E-16 -5.86290758E-01  4.14981281E-01
  1.03917044E+00  3.20042416E-01 -2.26528578E-01 -5.67258846E-01 -2.34123120E-16
  5.12229467E-15 -2.95355229E-15  8.66948260E-16 -3.97072672E-15  2.99452687E-15
  3.41157384E-16  9.24059212E-18  2.49253261E-16  3.93552324E-01  1.17469097E+00
 -2.47061176E-01 -2.14831012E-01 -6.41236331E-01  1.34864919E-01  1.09324547E-15
 -1.79393912E-15 -8.55768579E-16  8.11919075E-15 -3.02606058E-15  1.55494612E-15
  4.43741824E-01  2.64996766E+00 -6.00896952E-01 -2.78025261E-15  3.52611523E-17
 -8.65427257E-17  1.50731744E-15 -2.23901885E-17  4.65707387E-17 -1.24209023E+00
 -1.24209023E+00 -1.24209023E+00 -3.59049913E-17 -3.16344661E-17 -1.48705661E-17
Total SCF Density                          R   N=         120
  6.28793833E-02  1.15639894E-01  2.12670422E-01  1.04547842E-01  1.92271310E-01
  1.73828858E-01 -7.78984897E-18 -1.43261155E-17 -1.29519703E-17  9.65049969E-34
  2.25318661E-18  4.14377887E-18  3.74631217E-18 -2.79137334E-34  8.07394990E-35
 -6.85456251E-18 -1.26060537E-17 -1.13968949E-17  8.49181463E-34 -2.45622773E-34
  7.47224683E-34  5.14961120E-18  9.47052055E-18  8.56211865E-18 -6.37962578E-34
  1.84528448E-34 -5.61365746E-34  4.21735935E-34  5.34515226E-18  9.83013521E-18
  8.88723947E-18 -6.62187297E-34  1.91535363E-34 -5.82681929E-34  4.37750094E-34
  4.54372343E-34  9.52371098E-18  1.75148175E-17  1.58348155E-17 -1.17985047E-33
  3.41267629E-34 -1.03819199E-33  7.79960078E-34  8.09576727E-34  1.44246120E-33
  3.84759043E-04  7.07600686E-04  6.39728408E-04 -4.76660978E-20  1.37872523E-20
 -4.19430785E-20  3.15104788E-20  3.27069949E-20  5.82756021E-20  2.35434117E-06
  3.84759043E-04  7.07600686E-04  6.39728408E-04 -4.76660978E-20  1.37872523E-20
 -4.19430785E-20  3.15104788E-20  3.27069949E-20  5.82756021E-20  2.35434117E-06
  2.35434117E-06  3.84759043E-04  7.07600686E-04  6.39728408E-04 -4.76660978E-20
  1.37872523E-20 -4.19430785E-20  3.15104788E-20  3.27069949E-20  5.82756021E-20
  2.35434117E-06  2.35434117E-06  2.35434117E-06 -3.68299487E-19 -6.77330332E-19
 -6.12361553E-19  4.56269962E-35 -1.31974493E-35  4.01488012E-35 -3.01624963E-35
 -3.13078268E-35 -5.57826379E-35 -2.25362513E-21 -2.25362513E-21 -2.25362513E-21
  2.15721760E-36  1.08992116E-18  2.00444661E-18  1.81218230E-18 -1.35025517E-34
  3.90556591E-35 -1.18813708E-34  8.92608978E-35  9.26503131E-35  1.65079451E-34
  6.66922924E-21  6.66922924E-21  6.66922924E-21 -6.38392718E-36  1.88921721E-35
  4.60415254E-19  8.46738124E-19  7.65519936E-19 -5.70388115E-35  1.64982771E-35
 -5.01904595E-35  3.77064695E-35  3.91382598E-35  6.97344914E-35  2.81728165E-21
  2.81728165E-21  2.81728165E-21 -2.69676153E-36  7.98061783E-36  3.37125136E-36
Spin SCF Density                           R   N=         120
  6.28793833E-02  1.15639894E-01  2.12670422E-01  1.04547842E-01  1.92271310E-01
  1.73828858E-01 -7.78984897E-18 -1.43261155E-17 -1.29519703E-17  9.65049969E-34
  2.25318661E-18  4.14377887E-18  3.74631217E-18 -2.79137334E-34  8.07394990E-35
 -6.85456251E-18 -1.26060537E-17 -1.13968949E-17  8.49181463E-34 -2.45622773E-34
  7.47224683E-34  5.14961120E-18  9.47052055E-18  8.56211865E-18 -6.37962578E-34
  1.84528448E-34 -5.61365746E-34  4.21735935E-34  5.34515226E-18  9.83013521E-18
  8.88723947E-18 -6.62187297E-34  1.91535363E-34 -5.82681929E-34  4.37750094E-34
  4.54372343E-34  9.52371098E-18  1.75148175E-17  1.58348155E-17 -1.17985047E-33
  3.41267629E-34 -1.03819199E-33  7.79960078E-34  8.09576727E-34  1.44246120E-33
  3.84759043E-04  7.07600686E-04  6.39728408E-04 -4.76660978E-20  1.37872523E-20
 -4.19430785E-20  3.15104788E-20  3.27069949E-20  5.82756021E-20  2.35434117E-06
  3.84759043E-04  7.07600686E-04  6.39728408E-04 -4.76660978E-20  1.37872523E-20
 -4.19430785E-20  3.15104788E-20  3.27069949E-20  5.82756021E-20  2.35434117E-06
  2.35434117E-06  3.84759043E-04  7.07600686E-04  6.39728408E-04 -4.76660978E-20
  1.37872523E-20 -4.19430785E-20  3.15104788E-20  3.27069949E-20  5.82756021E-20
  2.35434117E-06  2.35434117E-06  2.35434117E-06 -3.68299487E-19 -6.77330332E-19
 -6.12361553E-19  4.56269962E-35 -1.31974493E-35  4.01488012E-35 -3.01624963E-35
 -3.13078268E-35 -5.57826379E-35 -2.25362513E-21 -2.25362513E-21 -2.25362513E-21
  2.15721760E-36  1.08992116E-18  2.00444661E-18  1.81218230E-18 -1.35025517E-34
  3.90556591E-35 -1.18813708E-34  8.92608978E-35  9.26503131E-35  1.65079451E-34
  6.66922924E-21  6.66922924E-21  6.66922924E-21 -6.38392718E-36  1.88921721E-35
  4.60415254E-19  8.46738124E-19  7.65519936E-19 -5.70388115E-35  1.64982771E-35
 -5.01904595E-35  3.77064695E-35  3.91382598E-35  6.97344914E-35  2.81728165E-21
  2.81728165E-21  2.81728165E-21 -2.69676153E-36  7.98061783E-36  3.37125136E-36
Mulliken Charges                           R   N=           1
  1.77635684E-15
ONIOM Charges                              I   N=          16
           0           0           0           0           0           0
           0           0           0           0           0           0
           0           0           0           0
ONIOM Multiplicities                       I   N=          16
           2           0           0           0           0           0
           0           0           0           0           0           0
           0           0           0           0
Atom Layers                                I   N=           1
           1
Atom Modifiers                             I   N=           1
           0
Force Field                                I                0
Int Atom Modified Types                    I   N=           1
           0
Link Atoms                                 I   N=           1
           0
Atom Modified MM Charges                   R   N=           1
  0.00000000E+00
Link Distances                             R   N=           4
  0.00000000E+00  0.00000000E+00  0.00000000E+00  0.00000000E+00
Cartesian Gradient                         R   N=           3
  0.00000000E+00  0.00000000E+00  0.00000000E+00
Dipole Moment                              R   N=           3
 -7.98176343E-18 -4.46987101E-17 -4.13600627E-17
Quadrupole Moment                          R   N=           6
  0.00000000E+00  0.00000000E+00  0.00000000E+00  1.13959157E-18 -3.37243195E-18
 -1.42461599E-18
Anisotropic Hyperfine tensors              R   N=           6
 -2.96059473E-16  0.00000000E+00  0.00000000E+00  0.00000000E+00  0.00000000E+00
  0.00000000E+00
Isotropic Hyperfine splittings             R   N=           1
  2.97137545E-01
QEq coupling tensors                       R   N=           6
 -2.96059473E-16  0.00000000E+00  0.00000000E+00  0.00000000E+00  0.00000000E+00
  0.00000000E+00
