 Entering Gaussian System, Link 0=g09
 Input=1.com
 Output=1.log
 Initial command:
 /home/software/GAUSSIAN/g09.D.01/g09/l1.exe "/scr/Gau-31424.inp" -scrdir="/scr/"
 Entering Link 1 = /home/software/GAUSSIAN/g09.D.01/g09/l1.exe PID=     31425.
  
 Copyright (c) 1988,1990,1992,1993,1995,1998,2003,2009,2013,
            Gaussian, Inc.  All Rights Reserved.
  
 This is part of the Gaussian(R) 09 program.  It is based on
 the Gaussian(R) 03 system (copyright 2003, Gaussian, Inc.),
 the Gaussian(R) 98 system (copyright 1998, Gaussian, Inc.),
 the Gaussian(R) 94 system (copyright 1995, Gaussian, Inc.),
 the Gaussian 92(TM) system (copyright 1992, Gaussian, Inc.),
 the Gaussian 90(TM) system (copyright 1990, Gaussian, Inc.),
 the Gaussian 88(TM) system (copyright 1988, Gaussian, Inc.),
 the Gaussian 86(TM) system (copyright 1986, Carnegie Mellon
 University), and the Gaussian 82(TM) system (copyright 1983,
 Carnegie Mellon University). Gaussian is a federally registered
 trademark of Gaussian, Inc.
  
 This software contains proprietary and confidential information,
 including trade secrets, belonging to Gaussian, Inc.
  
 This software is provided under written license and may be
 used, copied, transmitted, or stored only in accord with that
 written license.
  
 The following legend is applicable only to US Government
 contracts under FAR:
  
                    RESTRICTED RIGHTS LEGEND
  
 Use, reproduction and disclosure by the US Government is
 subject to restrictions as set forth in subparagraphs (a)
 and (c) of the Commercial Computer Software - Restricted
 Rights clause in FAR 52.227-19.
  
 Gaussian, Inc.
 340 Quinnipiac St., Bldg. 40, Wallingford CT 06492
  
  
 ---------------------------------------------------------------
 Warning -- This program may not be used in any manner that
 competes with the business of Gaussian, Inc. or will provide
 assistance to any competitor of Gaussian, Inc.  The licensee
 of this program is prohibited from giving any competitor of
 Gaussian, Inc. access to this program.  By using this program,
 the user acknowledges that Gaussian, Inc. is engaged in the
 business of creating and licensing software in the field of
 computational chemistry and represents and warrants to the
 licensee that it is not a competitor of Gaussian, Inc. and that
 it will not use this program in any manner prohibited above.
 ---------------------------------------------------------------
  

 Cite this work as:
 Gaussian 09, Revision D.01,
 M. J. Frisch, G. W. Trucks, H. B. Schlegel, G. E. Scuseria, 
 M. A. Robb, J. R. Cheeseman, G. Scalmani, V. Barone, B. Mennucci, 
 G. A. Petersson, H. Nakatsuji, M. Caricato, X. Li, H. P. Hratchian, 
 A. F. Izmaylov, J. Bloino, G. Zheng, J. L. Sonnenberg, M. Hada, 
 M. Ehara, K. Toyota, R. Fukuda, J. Hasegawa, M. Ishida, T. Nakajima, 
 Y. Honda, O. Kitao, H. Nakai, T. Vreven, J. A. Montgomery, Jr., 
 J. E. Peralta, F. Ogliaro, M. Bearpark, J. J. Heyd, E. Brothers, 
 K. N. Kudin, V. N. Staroverov, T. Keith, R. Kobayashi, J. Normand, 
 K. Raghavachari, A. Rendell, J. C. Burant, S. S. Iyengar, J. Tomasi, 
 M. Cossi, N. Rega, J. M. Millam, M. Klene, J. E. Knox, J. B. Cross, 
 V. Bakken, C. Adamo, J. Jaramillo, R. Gomperts, R. E. Stratmann, 
 O. Yazyev, A. J. Austin, R. Cammi, C. Pomelli, J. W. Ochterski, 
 R. L. Martin, K. Morokuma, V. G. Zakrzewski, G. A. Voth, 
 P. Salvador, J. J. Dannenberg, S. Dapprich, A. D. Daniels, 
 O. Farkas, J. B. Foresman, J. V. Ortiz, J. Cioslowski, 
 and D. J. Fox, Gaussian, Inc., Wallingford CT, 2013.
 
 ******************************************
 Gaussian 09:  ES64L-G09RevD.01 24-Apr-2013
                25-Oct-2017 
 ******************************************
 %chk=1.chk
 %nprocshared=8
 Will use up to    8 processors via shared memory.
 %mem=2gb
 --------------------------------------------------
 # b3lyp/cc-pVTZ 6d 10f Int=NoBasisTransform NoSymm
 --------------------------------------------------
 1/38=1/1;
 2/12=2,15=1,17=6,18=5,40=1/2;
 3/5=16,6=1,8=22,11=2,16=1,25=1,30=1,60=-1,74=-5/1,2,3;
 4//1;
 5/5=2,38=5/2;
 6/7=2,8=2,9=2,10=2,28=1/1;
 99/5=1,9=1/99;
 -
 1
 -
 Symbolic Z-matrix:
 Charge =  0 Multiplicity = 1
 C                     0.        0.        0. 
 
                          Input orientation:                          
 ---------------------------------------------------------------------
 Center     Atomic      Atomic             Coordinates (Angstroms)
 Number     Number       Type             X           Y           Z
 ---------------------------------------------------------------------
      1          6           0        0.000000    0.000000    0.000000
 ---------------------------------------------------------------------
 Symmetry turned off by external request.
 Stoichiometry    C
 Framework group  OH[O(C)]
 Deg. of freedom     0
 Full point group                 OH      NOp  48
 Standard basis: CC-pVTZ (6D, 10F)
    35 basis functions,    55 primitive gaussians,    35 cartesian basis functions
     3 alpha electrons        3 beta electrons
       nuclear repulsion energy         0.0000000000 Hartrees.
 NAtoms=    1 NActive=    1 NUniq=    1 SFac= 1.00D+00 NAtFMM=   60 NAOKFM=F Big=F
 Integral buffers will be    131072 words long.
 Raffenetti 2 integral format.
 Two-electron integral symmetry is turned off.
 One-electron integrals computed using PRISM.
 NBasis=    35 RedAO= T EigKep=  2.89D-03  NBF=    35
 NBsUse=    35 1.00D-06 EigRej= -1.00D+00 NBFU=    35
 ExpMin= 1.21D-01 ExpMax= 8.24D+03 ExpMxC= 2.81D+02 IAcc=1 IRadAn=         1 AccDes= 0.00D+00
 Harris functional with IExCor=  402 and IRadAn=       1 diagonalized for initial guess.
 HarFok:  IExCor=  402 AccDes= 0.00D+00 IRadAn=         1 IDoV= 1 UseB2=F ITyADJ=14
 ICtDFT=  3500011 ScaDFX=  1.000000  1.000000  1.000000  1.000000
 FoFCou: FMM=F IPFlag=           0 FMFlag=      100000 FMFlg1=           0
         NFxFlg=           0 DoJE=T BraDBF=F KetDBF=T FulRan=T
         wScrn=  0.000000 ICntrl=     500 IOpCl=  0 I1Cent=   200000004 NGrid=           0
         NMat0=    1 NMatS0=      1 NMatT0=    0 NMatD0=    1 NMtDS0=    0 NMtDT0=    0
 Symmetry not used in FoFCou.
 Keep R1 ints in memory in canonical form, NReq=2175162.
 Requested convergence on RMS density matrix=1.00D-08 within 128 cycles.
 Requested convergence on MAX density matrix=1.00D-06.
 Requested convergence on             energy=1.00D-06.
 No special actions if energy rises.
 Integral accuracy reduced to 1.0D-05 until final iterations.
 Initial convergence to 1.0D-05 achieved.  Increase integral accuracy.
 DSYEVD-2 returned Info=          71 IAlg= 4 N=    35 NDim=    35 NE2=     7663207 trying  DSYEV.
 DSYEVD-2 returned Info=          71 IAlg= 4 N=    35 NDim=    35 NE2=     7663207 trying  DSYEV.
 DSYEVD-2 returned Info=          71 IAlg= 4 N=    35 NDim=    35 NE2=     7663207 trying  DSYEV.
 SCF Done:  E(RB3LYP) =  -37.7931326763     A.U. after  101 cycles
            NFock=101  Conv=0.86D-09     -V/T= 2.0071

 **********************************************************************

            Population analysis using the SCF density.

 **********************************************************************

 Alpha  occ. eigenvalues --  -10.32768  -0.54904  -0.21651
 Alpha virt. eigenvalues --   -0.15294  -0.15294   0.17816   0.28835   0.28835
 Alpha virt. eigenvalues --    0.29152   0.65972   0.65972   0.67477   0.67477
 Alpha virt. eigenvalues --    0.68891   1.05534   1.56675   1.56675   1.58087
 Alpha virt. eigenvalues --    2.63237   2.63237   2.64971   2.64971   2.67303
 Alpha virt. eigenvalues --    2.67304   2.67831   2.90196   2.90196   2.91586
 Alpha virt. eigenvalues --    2.91586   2.93874   3.55496   3.55496   3.58578
 Alpha virt. eigenvalues --    5.36963   7.41384
          Condensed to atoms (all electrons):
               1
     1  C    6.000000
 Mulliken charges:
               1
     1  C    0.000000
 Sum of Mulliken charges =   0.00000
 Mulliken charges with hydrogens summed into heavy atoms:
               1
     1  C    0.000000
 Electronic spatial extent (au):  <R**2>=             14.4234
 Charge=              0.0000 electrons
 Dipole moment (field-independent basis, Debye):
    X=              0.0000    Y=              0.0000    Z=              0.0000  Tot=              0.0000
 Quadrupole moment (field-independent basis, Debye-Ang):
   XX=             -5.5066   YY=             -7.9103   ZZ=             -5.9831
   XY=              1.1509   XZ=             -0.6586   YZ=              1.6401
 Traceless Quadrupole moment (field-independent basis, Debye-Ang):
   XX=              0.9600   YY=             -1.4436   ZZ=              0.4836
   XY=              1.1509   XZ=             -0.6586   YZ=              1.6401
 Octapole moment (field-independent basis, Debye-Ang**2):
  XXX=              0.0000  YYY=              0.0000  ZZZ=              0.0000  XYY=              0.0000
  XXY=              0.0000  XXZ=              0.0000  XZZ=              0.0000  YZZ=              0.0000
  YYZ=              0.0000  XYZ=              0.0000
 Hexadecapole moment (field-independent basis, Debye-Ang**3):
 XXXX=             -6.2294 YYYY=            -11.6692 ZZZZ=             -7.3099 XXXY=              1.3058
 XXXZ=             -0.7473 YYYX=              1.2988 YYYZ=              1.8509 ZZZX=             -0.7465
 ZZZY=              1.8589 XXYY=             -2.9833 XXZZ=             -2.2559 YYZZ=             -3.1602
 XXYZ=              0.6190 YYXZ=             -0.2446 ZZXY=              0.4330
 N-N= 0.000000000000D+00 E-N=-8.789334375692D+01  KE= 3.752511947880D+01
 1\1\GINC-NODE084\SP\RB3LYP\CC-pVTZ\C1\YM95\25-Oct-2017\0\\# b3lyp/cc-p
 VTZ 6d 10f Int=NoBasisTransform NoSymm\\1\\0,1\C,0,0.,0.,0.\\Version=E
 S64L-G09RevD.01\HF=-37.7931327\RMSD=8.566e-10\Dipole=0.,0.,0.\Quadrupo
 le=0.7137484,-1.0732934,0.359545,0.8556326,-0.4896661,1.2193402\PG=OH 
 [O(C1)]\\@


 THE CAUTIOUS SELDOM ERR...CONFUCIUS                   
 Job cpu time:       0 days  0 hours  0 minutes 11.8 seconds.
 File lengths (MBytes):  RWF=      5 Int=      0 D2E=      0 Chk=      2 Scr=      1
 Normal termination of Gaussian 09 at Wed Oct 25 14:56:17 2017.
